 Gaussian 09, Revision D.01,
 Gaussian 09:  ES64L-G09RevD.01 24-Apr-2013

 ----------------------------------------------------------------
 # PBE1PBE/SDDAll scf=(maxcycle=512) opt=(cartesian,maxcycle=512)
 ----------------------------------------------------------------

 ------------------------------------
 Cellular Automata job -34.4133483937
 ------------------------------------
 Symbolic Z-matrix:
 Charge =  0 Multiplicity = 1

 SCF Done:  E(RPBE1PBE) =  -34.4133483946     A.U. after   12 cycles
 SCF Done:  E(RPBE1PBE) =  -34.4132251062     A.U. after   11 cycles
 SCF Done:  E(RPBE1PBE) =  -34.4136061935     A.U. after    9 cycles
 SCF Done:  E(RPBE1PBE) =  -34.4136842320     A.U. after   11 cycles
 SCF Done:  E(RPBE1PBE) =  -34.4136693199     A.U. after   11 cycles
 SCF Done:  E(RPBE1PBE) =  -34.4137306203     A.U. after    8 cycles
 SCF Done:  E(RPBE1PBE) =  -34.4136840602     A.U. after   11 cycles
 SCF Done:  E(RPBE1PBE) =  -34.4137358489     A.U. after    8 cycles
 SCF Done:  E(RPBE1PBE) =  -34.4136920955     A.U. after   11 cycles
 SCF Done:  E(RPBE1PBE) =  -34.4137462797     A.U. after    8 cycles
 SCF Done:  E(RPBE1PBE) =  -34.4139060942     A.U. after   10 cycles
 SCF Done:  E(RPBE1PBE) =  -34.4139085557     A.U. after    8 cycles
 SCF Done:  E(RPBE1PBE) =  -34.4138671664     A.U. after   11 cycles
 SCF Done:  E(RPBE1PBE) =  -34.4139087710     A.U. after    8 cycles
 SCF Done:  E(RPBE1PBE) =  -34.4139091251     A.U. after    8 cycles
 SCF Done:  E(RPBE1PBE) =  -34.4139094954     A.U. after    8 cycles
 SCF Done:  E(RPBE1PBE) =  -34.4139095395     A.U. after    7 cycles
 SCF Done:  E(RPBE1PBE) =  -34.4139095740     A.U. after    7 cycles
 SCF Done:  E(RPBE1PBE) =  -34.4139095910     A.U. after    7 cycles
 SCF Done:  E(RPBE1PBE) =  -34.4139095969     A.U. after    6 cycles
 Optimization completed.
    -- Stationary point found.

                         Standard orientation:
 ---------------------------------------------------------------------
 Center     Atomic      Atomic             Coordinates (Angstroms)
 Number     Number       Type             X           Y           Z
 ---------------------------------------------------------------------
      1          8           0        1.431467    0.000390   -0.113376
      2          1           0        0.451262    0.000030   -0.016674
      3          1           0        1.881899   -0.002750    0.743277
      4          8           0       -1.277340   -0.000169    0.056547
      5          1           0       -1.782681    0.803591   -0.134362
      6          1           0       -1.783495   -0.802645   -0.137604
 ---------------------------------------------------------------------

 The electronic state is 1-A.
 Alpha  occ. eigenvalues --   -1.08709  -1.00041  -0.60743  -0.53476  -0.42880
 Alpha  occ. eigenvalues --   -0.36800  -0.33071  -0.28577
 Alpha virt. eigenvalues --    0.02939   0.08689   0.09432   0.11986   0.15437
 Alpha virt. eigenvalues --    0.16344   0.18738   0.23285   0.24293   0.32578
 Alpha virt. eigenvalues --    0.88766   1.01306   1.09582   1.11769   1.14705

 Mulliken charges:
               1
     1  O   -0.854409
     2  H    0.464315
     3  H    0.381095
     4  O   -0.858018
     5  H    0.433493
     6  H    0.433523
 Sum of Mulliken charges =   0.00000

 Dipole moment (field-independent basis, Debye):
    X=             -4.2428    Y=             -0.0051    Z=              1.2753  Tot=              4.4303
 Quadrupole moment (field-independent basis, Debye-Ang):
   XX=             -9.1117   YY=            -11.8607   ZZ=            -14.1100
   XY=             -0.0192   XZ=              5.9431   YZ=              0.0018

 Normal termination of Gaussian 09 at Thu Jul 25 18:22:17 2019.
