 Gaussian 09, Revision D.01,
 Gaussian 09:  ES64L-G09RevD.01 24-Apr-2013

 ----------------------------------------------------------------
 # PBE1PBE/SDDAll scf=(maxcycle=512) opt=(cartesian,maxcycle=512)
 ----------------------------------------------------------------

 ------------------------------------
 Cellular Automata job -34.4138952549
 ------------------------------------
 Symbolic Z-matrix:
 Charge =  0 Multiplicity = 1

 SCF Done:  E(RPBE1PBE) =  -34.4138952527     A.U. after   12 cycles
 SCF Done:  E(RPBE1PBE) =  -34.4129027474     A.U. after   11 cycles
 SCF Done:  E(RPBE1PBE) =  -34.4138988729     A.U. after    8 cycles
 SCF Done:  E(RPBE1PBE) =  -34.4138439549     A.U. after   11 cycles
 SCF Done:  E(RPBE1PBE) =  -34.4139024341     A.U. after    7 cycles
 SCF Done:  E(RPBE1PBE) =  -34.4138252523     A.U. after   11 cycles
 SCF Done:  E(RPBE1PBE) =  -34.4139039641     A.U. after    7 cycles
 SCF Done:  E(RPBE1PBE) =  -34.4138022150     A.U. after   11 cycles
 SCF Done:  E(RPBE1PBE) =  -34.4139045612     A.U. after    7 cycles
 SCF Done:  E(RPBE1PBE) =  -34.4138729035     A.U. after   11 cycles
 SCF Done:  E(RPBE1PBE) =  -34.4139044895     A.U. after    7 cycles
 SCF Done:  E(RPBE1PBE) =  -34.4138652084     A.U. after   11 cycles
 SCF Done:  E(RPBE1PBE) =  -34.4139045666     A.U. after    7 cycles
 SCF Done:  E(RPBE1PBE) =  -34.4139092998     A.U. after    8 cycles
 SCF Done:  E(RPBE1PBE) =  -34.4139095185     A.U. after    8 cycles
 SCF Done:  E(RPBE1PBE) =  -34.4139095911     A.U. after    7 cycles
 Optimization completed.
    -- Stationary point found.

                         Standard orientation:
 ---------------------------------------------------------------------
 Center     Atomic      Atomic             Coordinates (Angstroms)
 Number     Number       Type             X           Y           Z
 ---------------------------------------------------------------------
      1          8           0       -1.431481    0.000758   -0.113356
      2          1           0       -1.882007   -0.005176    0.743200
      3          1           0       -0.451296   -0.000431   -0.016702
      4          8           0        1.277347   -0.000336    0.056482
      5          1           0        1.782063    0.804199   -0.132648
      6          1           0        1.784318   -0.801964   -0.138851
 ---------------------------------------------------------------------

 The electronic state is 1-A.
 Alpha  occ. eigenvalues --   -1.08710  -1.00042  -0.60744  -0.53478  -0.42880
 Alpha  occ. eigenvalues --   -0.36800  -0.33070  -0.28577
 Alpha virt. eigenvalues --    0.02939   0.08689   0.09432   0.11986   0.15437
 Alpha virt. eigenvalues --    0.16344   0.18738   0.23287   0.24295   0.32581
 Alpha virt. eigenvalues --    0.88767   1.01307   1.09586   1.11768   1.14703

 Mulliken charges:
               1
     1  O   -0.854424
     2  H    0.381105
     3  H    0.464340
     4  O   -0.858040
     5  H    0.433483
     6  H    0.433536
 Sum of Mulliken charges =   0.00000

 Dipole moment (field-independent basis, Debye):
    X=              4.2430    Y=             -0.0098    Z=              1.2765  Tot=              4.4309
 Quadrupole moment (field-independent basis, Debye-Ang):
   XX=             -9.1089   YY=            -11.8607   ZZ=            -14.1105
   XY=              0.0371   XZ=             -5.9406   YZ=              0.0035

 Normal termination of Gaussian 09 at Thu Jul 25 18:23:22 2019.
