 Gaussian 09, Revision D.01,
 Gaussian 09:  ES64L-G09RevD.01 24-Apr-2013

 ----------------------------------------------------------------
 # PBE1PBE/SDDAll scf=(maxcycle=512) opt=(cartesian,maxcycle=512)
 ----------------------------------------------------------------

 ------------------------------------
 Cellular Automata job -34.4117758606
 ------------------------------------
 Symbolic Z-matrix:
 Charge =  0 Multiplicity = 1

 SCF Done:  E(RPBE1PBE) =  -34.4117758584     A.U. after   12 cycles
 SCF Done:  E(RPBE1PBE) =  -34.4125107044     A.U. after   11 cycles
 SCF Done:  E(RPBE1PBE) =  -34.4117103718     A.U. after   12 cycles
 SCF Done:  E(RPBE1PBE) =  -34.4127318369     A.U. after   10 cycles
 SCF Done:  E(RPBE1PBE) =  -34.4127749997     A.U. after   11 cycles
 SCF Done:  E(RPBE1PBE) =  -34.4128241556     A.U. after   11 cycles
 SCF Done:  E(RPBE1PBE) =  -34.4128796799     A.U. after   11 cycles
 SCF Done:  E(RPBE1PBE) =  -34.4133651210     A.U. after   10 cycles
 SCF Done:  E(RPBE1PBE) =  -34.4133526687     A.U. after   11 cycles
 SCF Done:  E(RPBE1PBE) =  -34.4134230157     A.U. after    8 cycles
 SCF Done:  E(RPBE1PBE) =  -34.4139089370     A.U. after    8 cycles
 SCF Done:  E(RPBE1PBE) =  -34.4139090492     A.U. after    7 cycles
 SCF Done:  E(RPBE1PBE) =  -34.4139092309     A.U. after    7 cycles
 SCF Done:  E(RPBE1PBE) =  -34.4139091845     A.U. after    7 cycles
 SCF Done:  E(RPBE1PBE) =  -34.4139093787     A.U. after    7 cycles
 SCF Done:  E(RPBE1PBE) =  -34.4139094507     A.U. after    7 cycles
 SCF Done:  E(RPBE1PBE) =  -34.4139095291     A.U. after    7 cycles
 SCF Done:  E(RPBE1PBE) =  -34.4139095463     A.U. after    7 cycles
 SCF Done:  E(RPBE1PBE) =  -34.4139091912     A.U. after    8 cycles
 SCF Done:  E(RPBE1PBE) =  -34.4139095749     A.U. after    4 cycles
 Optimization completed.
    -- Stationary point found.

                         Standard orientation:
 ---------------------------------------------------------------------
 Center     Atomic      Atomic             Coordinates (Angstroms)
 Number     Number       Type             X           Y           Z
 ---------------------------------------------------------------------
      1          8           0       -1.277382    0.000053    0.056416
      2          1           0       -1.784227    0.802574   -0.135520
      3          1           0       -1.782759   -0.803464   -0.135477
      4          8           0        1.431630    0.000013   -0.113355
      5          1           0        0.451351    0.000486   -0.017063
      6          1           0        1.881656   -0.000121    0.743577
 ---------------------------------------------------------------------

 The electronic state is 1-A.
 Alpha  occ. eigenvalues --   -1.08711  -1.00040  -0.60740  -0.53473  -0.42883
 Alpha  occ. eigenvalues --   -0.36801  -0.33072  -0.28576
 Alpha virt. eigenvalues --    0.02938   0.08689   0.09431   0.11985   0.15438
 Alpha virt. eigenvalues --    0.16343   0.18738   0.23285   0.24293   0.32576
 Alpha virt. eigenvalues --    0.88771   1.01307   1.09580   1.11767   1.14699

 Mulliken charges:
               1
     1  O   -0.858032
     2  H    0.433510
     3  H    0.433478
     4  O   -0.854389
     5  H    0.464343
     6  H    0.381090
 Sum of Mulliken charges =   0.00000

 Dipole moment (field-independent basis, Debye):
    X=             -4.2453    Y=             -0.0013    Z=              1.2777  Tot=              4.4334
 Quadrupole moment (field-independent basis, Debye-Ang):
   XX=             -9.1099   YY=            -11.8617   ZZ=            -14.1094
   XY=              0.0003   XZ=              5.9382   YZ=             -0.0001

 Normal termination of Gaussian 09 at Thu Jul 25 18:23:00 2019.
