 Gaussian 09, Revision D.01,
 Gaussian 09:  ES64L-G09RevD.01 24-Apr-2013

 ----------------------------------------------------------------
 # PBE1PBE/SDDAll scf=(maxcycle=512) opt=(cartesian,maxcycle=512)
 ----------------------------------------------------------------

 ------------------------------------
 Cellular Automata job -34.4131413496
 ------------------------------------
 Symbolic Z-matrix:
 Charge =  0 Multiplicity = 1

 SCF Done:  E(RPBE1PBE) =  -34.4131413504     A.U. after   12 cycles
 SCF Done:  E(RPBE1PBE) =  -34.4131900530     A.U. after   11 cycles
 SCF Done:  E(RPBE1PBE) =  -34.4134534096     A.U. after   11 cycles
 SCF Done:  E(RPBE1PBE) =  -34.4134064611     A.U. after   11 cycles
 SCF Done:  E(RPBE1PBE) =  -34.4135091823     A.U. after    8 cycles
 SCF Done:  E(RPBE1PBE) =  -34.4134963178     A.U. after   10 cycles
 SCF Done:  E(RPBE1PBE) =  -34.4135150144     A.U. after    7 cycles
 SCF Done:  E(RPBE1PBE) =  -34.4135063793     A.U. after   10 cycles
 SCF Done:  E(RPBE1PBE) =  -34.4135156040     A.U. after    7 cycles
 SCF Done:  E(RPBE1PBE) =  -34.4136416337     A.U. after   11 cycles
 SCF Done:  E(RPBE1PBE) =  -34.4139002903     A.U. after    9 cycles
 SCF Done:  E(RPBE1PBE) =  -34.4139079322     A.U. after    7 cycles
 SCF Done:  E(RPBE1PBE) =  -34.4139082477     A.U. after    8 cycles
 SCF Done:  E(RPBE1PBE) =  -34.4139077898     A.U. after    8 cycles
 SCF Done:  E(RPBE1PBE) =  -34.4139082830     A.U. after    5 cycles
 SCF Done:  E(RPBE1PBE) =  -34.4139088198     A.U. after    7 cycles
 SCF Done:  E(RPBE1PBE) =  -34.4139083459     A.U. after    8 cycles
 SCF Done:  E(RPBE1PBE) =  -34.4139090678     A.U. after    5 cycles
 SCF Done:  E(RPBE1PBE) =  -34.4139094066     A.U. after    8 cycles
 SCF Done:  E(RPBE1PBE) =  -34.4139095138     A.U. after    7 cycles
 Optimization completed.
    -- Stationary point found.

                         Standard orientation:
 ---------------------------------------------------------------------
 Center     Atomic      Atomic             Coordinates (Angstroms)
 Number     Number       Type             X           Y           Z
 ---------------------------------------------------------------------
      1          8           0       -1.277482   -0.000052    0.056851
      2          1           0       -1.781556   -0.803587   -0.137865
      3          1           0       -1.783525    0.802726   -0.136248
      4          8           0        1.431477    0.000164   -0.113413
      5          1           0        0.451278    0.001607   -0.016642
      6          1           0        1.881846   -0.001639    0.743253
 ---------------------------------------------------------------------

 The electronic state is 1-A.
 Alpha  occ. eigenvalues --   -1.08711  -1.00045  -0.60748  -0.53476  -0.42878
 Alpha  occ. eigenvalues --   -0.36801  -0.33074  -0.28579
 Alpha virt. eigenvalues --    0.02943   0.08689   0.09432   0.11985   0.15434
 Alpha virt. eigenvalues --    0.16346   0.18738   0.23278   0.24292   0.32571
 Alpha virt. eigenvalues --    0.88765   1.01309   1.09588   1.11774   1.14707

 Mulliken charges:
               1
     1  O   -0.857879
     2  H    0.433486
     3  H    0.433465
     4  O   -0.854406
     5  H    0.464231
     6  H    0.381103
 Sum of Mulliken charges =   0.00000

 Dipole moment (field-independent basis, Debye):
    X=             -4.2398    Y=             -0.0025    Z=              1.2688  Tot=              4.4256
 Quadrupole moment (field-independent basis, Debye-Ang):
   XX=             -9.1223   YY=            -11.8600   ZZ=            -14.1083
   XY=             -0.0087   XZ=              5.9549   YZ=              0.0007

 Normal termination of Gaussian 09 at Thu Jul 25 18:24:46 2019.
