 Gaussian 09, Revision D.01,
 Gaussian 09:  ES64L-G09RevD.01 24-Apr-2013

 ----------------------------------------------------------------
 # PBE1PBE/SDDAll scf=(maxcycle=512) opt=(cartesian,maxcycle=512)
 ----------------------------------------------------------------

 ------------------------------------
 Cellular Automata job -34.4128104423
 ------------------------------------
 Symbolic Z-matrix:
 Charge =  0 Multiplicity = 1

 SCF Done:  E(RPBE1PBE) =  -34.4128104547     A.U. after   12 cycles
 SCF Done:  E(RPBE1PBE) =  -34.4123026973     A.U. after   11 cycles
 SCF Done:  E(RPBE1PBE) =  -34.4129104469     A.U. after    9 cycles
 SCF Done:  E(RPBE1PBE) =  -34.4129794978     A.U. after   11 cycles
 SCF Done:  E(RPBE1PBE) =  -34.4130453430     A.U. after   11 cycles
 SCF Done:  E(RPBE1PBE) =  -34.4129996786     A.U. after   11 cycles
 SCF Done:  E(RPBE1PBE) =  -34.4130770221     A.U. after    8 cycles
 SCF Done:  E(RPBE1PBE) =  -34.4130738981     A.U. after   10 cycles
 SCF Done:  E(RPBE1PBE) =  -34.4130810005     A.U. after    7 cycles
 SCF Done:  E(RPBE1PBE) =  -34.4130566641     A.U. after   11 cycles
 SCF Done:  E(RPBE1PBE) =  -34.4139087954     A.U. after    6 cycles
 SCF Done:  E(RPBE1PBE) =  -34.4139092625     A.U. after    8 cycles
 SCF Done:  E(RPBE1PBE) =  -34.4139090754     A.U. after    8 cycles
 SCF Done:  E(RPBE1PBE) =  -34.4139094795     A.U. after    7 cycles
 SCF Done:  E(RPBE1PBE) =  -34.4139094575     A.U. after    7 cycles
 SCF Done:  E(RPBE1PBE) =  -34.4139095170     A.U. after    6 cycles
 SCF Done:  E(RPBE1PBE) =  -34.4139095277     A.U. after    7 cycles
 SCF Done:  E(RPBE1PBE) =  -34.4139095140     A.U. after    7 cycles
 SCF Done:  E(RPBE1PBE) =  -34.4139095607     A.U. after    7 cycles
 SCF Done:  E(RPBE1PBE) =  -34.4139095929     A.U. after    7 cycles
 Optimization completed.
    -- Stationary point found.

                         Standard orientation:
 ---------------------------------------------------------------------
 Center     Atomic      Atomic             Coordinates (Angstroms)
 Number     Number       Type             X           Y           Z
 ---------------------------------------------------------------------
      1          8           0       -1.431391   -0.000895    0.113400
      2          1           0       -1.882439    0.006135   -0.742907
      3          1           0       -0.451234    0.000387    0.016222
      4          8           0        1.277377    0.000389   -0.056682
      5          1           0        1.781696   -0.804334    0.132810
      6          1           0        1.784089    0.801855    0.140129
 ---------------------------------------------------------------------

 The electronic state is 1-A.
 Alpha  occ. eigenvalues --   -1.08709  -1.00041  -0.60742  -0.53478  -0.42879
 Alpha  occ. eigenvalues --   -0.36800  -0.33071  -0.28577
 Alpha virt. eigenvalues --    0.02940   0.08690   0.09431   0.11986   0.15436
 Alpha virt. eigenvalues --    0.16345   0.18738   0.23285   0.24291   0.32578
 Alpha virt. eigenvalues --    0.88764   1.01305   1.09582   1.11771   1.14704

 Mulliken charges:
               1
     1  O   -0.854456
     2  H    0.381116
     3  H    0.464312
     4  O   -0.857954
     5  H    0.433461
     6  H    0.433521
 Sum of Mulliken charges =   0.00000

 Dipole moment (field-independent basis, Debye):
    X=              4.2402    Y=              0.0117    Z=             -1.2729  Tot=              4.4271
 Quadrupole moment (field-independent basis, Debye-Ang):
   XX=             -9.1098   YY=            -11.8608   ZZ=            -14.1109
   XY=             -0.0437   XZ=              5.9484   YZ=              0.0041

 Normal termination of Gaussian 09 at Thu Jul 25 18:23:05 2019.
