 Gaussian 09, Revision D.01,
 Gaussian 09:  ES64L-G09RevD.01 24-Apr-2013

 ----------------------------------------------------------------
 # PBE1PBE/SDDAll scf=(maxcycle=512) opt=(cartesian,maxcycle=512)
 ----------------------------------------------------------------

 ------------------------------------
 Cellular Automata job -34.4130305908
 ------------------------------------
 Symbolic Z-matrix:
 Charge =  0 Multiplicity = 1

 SCF Done:  E(RPBE1PBE) =  -34.4130306004     A.U. after   12 cycles
 SCF Done:  E(RPBE1PBE) =  -34.4125033380     A.U. after   11 cycles
 SCF Done:  E(RPBE1PBE) =  -34.4131163129     A.U. after    9 cycles
 SCF Done:  E(RPBE1PBE) =  -34.4131352045     A.U. after   11 cycles
 SCF Done:  E(RPBE1PBE) =  -34.4131273472     A.U. after   11 cycles
 SCF Done:  E(RPBE1PBE) =  -34.4131906486     A.U. after    8 cycles
 SCF Done:  E(RPBE1PBE) =  -34.4132599281     A.U. after   11 cycles
 SCF Done:  E(RPBE1PBE) =  -34.4132377805     A.U. after   11 cycles
 SCF Done:  E(RPBE1PBE) =  -34.4132921803     A.U. after    8 cycles
 SCF Done:  E(RPBE1PBE) =  -34.4132841780     A.U. after   10 cycles
 SCF Done:  E(RPBE1PBE) =  -34.4139074418     A.U. after    7 cycles
 SCF Done:  E(RPBE1PBE) =  -34.4139023197     A.U. after   10 cycles
 SCF Done:  E(RPBE1PBE) =  -34.4139077037     A.U. after    5 cycles
 SCF Done:  E(RPBE1PBE) =  -34.4139081760     A.U. after    7 cycles
 SCF Done:  E(RPBE1PBE) =  -34.4139085735     A.U. after    8 cycles
 SCF Done:  E(RPBE1PBE) =  -34.4138996009     A.U. after   10 cycles
 SCF Done:  E(RPBE1PBE) =  -34.4139085916     A.U. after    7 cycles
 SCF Done:  E(RPBE1PBE) =  -34.4139090171     A.U. after    8 cycles
 SCF Done:  E(RPBE1PBE) =  -34.4139092872     A.U. after    8 cycles
 SCF Done:  E(RPBE1PBE) =  -34.4139093681     A.U. after    7 cycles
 Optimization completed.
    -- Stationary point found.

                         Standard orientation:
 ---------------------------------------------------------------------
 Center     Atomic      Atomic             Coordinates (Angstroms)
 Number     Number       Type             X           Y           Z
 ---------------------------------------------------------------------
      1          8           0       -1.277468   -0.001204   -0.057325
      2          1           0       -1.781295    0.805435    0.125246
      3          1           0       -1.782506   -0.800540    0.152238
      4          8           0        1.431117    0.003415    0.113453
      5          1           0        1.883466   -0.023363   -0.741826
      6          1           0        0.451145    0.000774    0.015319
 ---------------------------------------------------------------------

 The electronic state is 1-A.
 Alpha  occ. eigenvalues --   -1.08708  -1.00043  -0.60739  -0.53485  -0.42878
 Alpha  occ. eigenvalues --   -0.36800  -0.33070  -0.28581
 Alpha virt. eigenvalues --    0.02944   0.08691   0.09431   0.11987   0.15431
 Alpha virt. eigenvalues --    0.16346   0.18738   0.23277   0.24281   0.32577
 Alpha virt. eigenvalues --    0.88760   1.01300   1.09571   1.11783   1.14703

 Mulliken charges:
               1
     1  O   -0.857652
     2  H    0.433401
     3  H    0.433418
     4  O   -0.854574
     5  H    0.381182
     6  H    0.464225
 Sum of Mulliken charges =   0.00000

 Dipole moment (field-independent basis, Debye):
    X=             -4.2317    Y=             -0.0504    Z=             -1.2593  Tot=              4.4154
 Quadrupole moment (field-independent basis, Debye-Ang):
   XX=             -9.1160   YY=            -11.8606   ZZ=            -14.1112
   XY=             -0.1622   XZ=             -5.9713   YZ=             -0.0149

 Normal termination of Gaussian 09 at Thu Jul 25 18:22:57 2019.
