 Gaussian 09, Revision D.01,
 Gaussian 09:  ES64L-G09RevD.01 24-Apr-2013

 ----------------------------------------------------------------
 # PBE1PBE/SDDAll scf=(maxcycle=512) opt=(cartesian,maxcycle=512)
 ----------------------------------------------------------------

 -----------------------
 Cellular Automata job 9
 -----------------------
 Symbolic Z-matrix:
 Charge =  0 Multiplicity = 1

 SCF Done:  E(RPBE1PBE) =  -34.3992149581     A.U. after   12 cycles
 SCF Done:  E(RPBE1PBE) =  -34.4012156552     A.U. after   11 cycles
 SCF Done:  E(RPBE1PBE) =  -34.4016446601     A.U. after   12 cycles
 SCF Done:  E(RPBE1PBE) =  -34.4033985735     A.U. after   11 cycles
 SCF Done:  E(RPBE1PBE) =  -34.4017959553     A.U. after   12 cycles
 SCF Done:  E(RPBE1PBE) =  -34.4038781416     A.U. after   10 cycles
 SCF Done:  E(RPBE1PBE) =  -34.4046266021     A.U. after   11 cycles
 SCF Done:  E(RPBE1PBE) =  -34.4051848438     A.U. after   12 cycles
 SCF Done:  E(RPBE1PBE) =  -34.4061652204     A.U. after   11 cycles
 SCF Done:  E(RPBE1PBE) =  -34.4068972494     A.U. after   11 cycles
 SCF Done:  E(RPBE1PBE) =  -34.4138636086     A.U. after    8 cycles
 SCF Done:  E(RPBE1PBE) =  -34.4138396139     A.U. after   10 cycles
 SCF Done:  E(RPBE1PBE) =  -34.4138657685     A.U. after    8 cycles
 SCF Done:  E(RPBE1PBE) =  -34.4138684422     A.U. after    8 cycles
 SCF Done:  E(RPBE1PBE) =  -34.4138715174     A.U. after    8 cycles
 SCF Done:  E(RPBE1PBE) =  -34.4138727296     A.U. after    8 cycles
 SCF Done:  E(RPBE1PBE) =  -34.4138719733     A.U. after    9 cycles
 SCF Done:  E(RPBE1PBE) =  -34.4138731491     A.U. after    5 cycles
 SCF Done:  E(RPBE1PBE) =  -34.4138730715     A.U. after    8 cycles
 SCF Done:  E(RPBE1PBE) =  -34.4138740752     A.U. after    8 cycles
 Optimization completed.
    -- Stationary point found.

                         Standard orientation:
 ---------------------------------------------------------------------
 Center     Atomic      Atomic             Coordinates (Angstroms)
 Number     Number       Type             X           Y           Z
 ---------------------------------------------------------------------
      1          8           0        1.430981   -0.032471   -0.108937
      2          1           0        0.452704    0.039106   -0.017991
      3          1           0        1.891403    0.217742    0.704899
      4          8           0       -1.279685    0.016212    0.057942
      5          1           0       -1.702975   -0.852207   -0.008723
      6          1           0       -1.851502    0.725428   -0.270226
 ---------------------------------------------------------------------

 The electronic state is 1-A.
 Alpha  occ. eigenvalues --   -1.08682  -1.00093  -0.60717  -0.53483  -0.42841
 Alpha  occ. eigenvalues --   -0.36774  -0.33137  -0.28628
 Alpha virt. eigenvalues --    0.02974   0.08720   0.09412   0.11992   0.15377
 Alpha virt. eigenvalues --    0.16391   0.18721   0.23086   0.24478   0.32396
 Alpha virt. eigenvalues --    0.88810   1.01330   1.09571   1.11852   1.14664

 Mulliken charges:
               1
     1  O   -0.854630
     2  H    0.463433
     3  H    0.381488
     4  O   -0.856338
     5  H    0.431492
     6  H    0.434555
 Sum of Mulliken charges =   0.00000

 Dipole moment (field-independent basis, Debye):
    X=             -4.1712    Y=              0.3827    Z=              1.1379  Tot=              4.3405
 Quadrupole moment (field-independent basis, Debye-Ang):
   XX=             -9.1033   YY=            -11.8391   ZZ=            -14.1572
   XY=              1.6207   XZ=              5.8451   YZ=             -0.1477

 Normal termination of Gaussian 09 at Thu Jul 25 18:20:56 2019.
