 Gaussian 09, Revision D.01,
 Gaussian 09:  ES64L-G09RevD.01 24-Apr-2013

 ----------------------------------------------------------------
 # PBE1PBE/SDDAll scf=(maxcycle=512) opt=(cartesian,maxcycle=512)
 ----------------------------------------------------------------

 ------------------------------------
 Cellular Automata job -34.4138684074
 ------------------------------------
 Symbolic Z-matrix:
 Charge =  0 Multiplicity = 1

 SCF Done:  E(RPBE1PBE) =  -34.4138684073     A.U. after   11 cycles
 SCF Done:  E(RPBE1PBE) =  -34.4127950861     A.U. after   12 cycles
 SCF Done:  E(RPBE1PBE) =  -34.4138814127     A.U. after    8 cycles
 SCF Done:  E(RPBE1PBE) =  -34.4138481673     A.U. after   11 cycles
 SCF Done:  E(RPBE1PBE) =  -34.4138933317     A.U. after    8 cycles
 SCF Done:  E(RPBE1PBE) =  -34.4138019473     A.U. after   11 cycles
 SCF Done:  E(RPBE1PBE) =  -34.4138980231     A.U. after    8 cycles
 SCF Done:  E(RPBE1PBE) =  -34.4137974087     A.U. after   10 cycles
 SCF Done:  E(RPBE1PBE) =  -34.4138984285     A.U. after    7 cycles
 SCF Done:  E(RPBE1PBE) =  -34.4138918437     A.U. after   10 cycles
 SCF Done:  E(RPBE1PBE) =  -34.4138988024     A.U. after    7 cycles
 SCF Done:  E(RPBE1PBE) =  -34.4138933394     A.U. after   10 cycles
 SCF Done:  E(RPBE1PBE) =  -34.4138989828     A.U. after    7 cycles
 SCF Done:  E(RPBE1PBE) =  -34.4139076627     A.U. after   10 cycles
 SCF Done:  E(RPBE1PBE) =  -34.4138691409     A.U. after   11 cycles
 SCF Done:  E(RPBE1PBE) =  -34.4139084851     A.U. after    8 cycles
 SCF Done:  E(RPBE1PBE) =  -34.4139094060     A.U. after    8 cycles
 SCF Done:  E(RPBE1PBE) =  -34.4139095583     A.U. after    8 cycles
 SCF Done:  E(RPBE1PBE) =  -34.4139095953     A.U. after    7 cycles
 Optimization completed.
    -- Stationary point found.

                         Standard orientation:
 ---------------------------------------------------------------------
 Center     Atomic      Atomic             Coordinates (Angstroms)
 Number     Number       Type             X           Y           Z
 ---------------------------------------------------------------------
      1          8           0       -1.277368   -0.000286    0.056632
      2          1           0       -1.784001   -0.802115   -0.138940
      3          1           0       -1.781922    0.804085   -0.133653
      4          8           0        1.431419    0.000647   -0.113401
      5          1           0        0.451248   -0.000459   -0.016324
      6          1           0        1.882268   -0.004399    0.743065
 ---------------------------------------------------------------------

 The electronic state is 1-A.
 Alpha  occ. eigenvalues --   -1.08709  -1.00041  -0.60742  -0.53476  -0.42880
 Alpha  occ. eigenvalues --   -0.36800  -0.33071  -0.28577
 Alpha virt. eigenvalues --    0.02940   0.08690   0.09431   0.11986   0.15436
 Alpha virt. eigenvalues --    0.16344   0.18738   0.23285   0.24292   0.32577
 Alpha virt. eigenvalues --    0.88765   1.01305   1.09582   1.11770   1.14704

 Mulliken charges:
               1
     1  O   -0.857977
     2  H    0.433521
     3  H    0.433473
     4  O   -0.854431
     5  H    0.464310
     6  H    0.381104
 Sum of Mulliken charges =   0.00000

 Dipole moment (field-independent basis, Debye):
    X=             -4.2410    Y=             -0.0084    Z=              1.2739  Tot=              4.4282
 Quadrupole moment (field-independent basis, Debye-Ang):
   XX=             -9.1103   YY=            -11.8608   ZZ=            -14.1106
   XY=             -0.0316   XZ=              5.9466   YZ=              0.0030

 Normal termination of Gaussian 09 at Thu Jul 25 18:23:20 2019.
